 Gaussian 09, Revision D.01,
 Gaussian 09:  ES64L-G09RevD.01 24-Apr-2013

 -------------------------------------
 #p B2PLYPD3/Def2QZVP opt freq=NoRaman
 -------------------------------------

 ---------
 water_opt
 ---------
 Symbolic Z-matrix:
 Charge =  0 Multiplicity = 1

 SCF Done:  E(RB2PLYPD3) =  -76.3340322801     A.U. after   10 cycles
 E2(B2PLYPD3) =    -0.9023765984D-01 E(B2PLYPD3) =    -0.76424269939934D+02
 SCF Done:  E(RB2PLYPD3) =  -76.3351931665     A.U. after    9 cycles
 E2(B2PLYPD3) =    -0.8992684766D-01 E(B2PLYPD3) =    -0.76425120014141D+02
 SCF Done:  E(RB2PLYPD3) =  -76.3351479405     A.U. after    7 cycles
 E2(B2PLYPD3) =    -0.8998018758D-01 E(B2PLYPD3) =    -0.76425128128105D+02
 Optimization completed.
    -- Stationary point found.
 Normal termination of Gaussian 09 at Thu Aug 20 12:36:50 2020.

 ----------------------------------------------------------------------
 #P Geom=AllCheck Guess=TCheck SCRF=Check GenChk RB2PLYPD3(FC)/def2QZVP
  Freq
 ----------------------------------------------------------------------

 Structure from the checkpoint file:  "water_opt.chk"
 ---------
 water_opt
 ---------
 Charge =  0 Multiplicity = 1

                         Standard orientation:
 ---------------------------------------------------------------------
 Center     Atomic      Atomic             Coordinates (Angstroms)
 Number     Number       Type             X           Y           Z
 ---------------------------------------------------------------------
      1          8           0        0.000000    0.000000    0.116909
      2          1           0        0.000000   -0.759576   -0.467635
      3          1           0        0.000000    0.759576   -0.467635
 ---------------------------------------------------------------------

 SCF Done:  E(RB2PLYPD3) =  -76.3351479405     A.U. after    1 cycles
 E2(B2PLYPD3) =    -0.8998018761D-01 E(B2PLYPD3) =    -0.76425128128138D+02
 E2(B2PLYPD3) =    -0.8998018761D-01 E(B2PLYPD3) =    -0.76425128128138D+02

 The electronic state is 1-A1.
 Alpha  occ. eigenvalues --  -19.73119  -1.15676  -0.61323  -0.47431  -0.39964
 Alpha virt. eigenvalues --    0.04543   0.10208   0.27510   0.30412   0.31014
 Alpha virt. eigenvalues --    0.35887   0.43979   0.50295   0.56236   0.62241
 Alpha virt. eigenvalues --    0.65622   0.81153   0.93828   0.95930   1.03922

 Mulliken charges:
               1
     1  O   -0.443343
     2  H    0.221671
     3  H    0.221671
 Sum of Mulliken charges =   0.00000

 Dipole moment (field-independent basis, Debye):
    X=              0.0000    Y=              0.0000    Z=             -1.9580  Tot=              1.9580
 Quadrupole moment (field-independent basis, Debye-Ang):
   XX=             -7.5933   YY=             -4.3298   ZZ=             -6.3315
   XY=              0.0000   XZ=              0.0000   YZ=              0.0000

  Exact polarizability:   7.443   0.000   9.132   0.000   0.000   8.391
 Approx polarizability:   6.749   0.000   9.448   0.000   0.000   8.460

                      1                      2                      3
                     A1                     A1                     B2
 Frequencies --   1639.6316              3833.9261              3943.9077
 Red. masses --      1.0832                 1.0446                 1.0822
 Frc consts  --      1.7158                 9.0470                 9.9176
 IR Inten    --     73.0547                 6.1326                62.8453

 - Thermochemistry -
 -------------------
 Temperature   298.150 Kelvin.  Pressure   1.00000 Atm.
 Atom     1 has atomic number  8 and mass  15.99491

 Molecular mass:    18.01056 amu.
 Principal axes and moments of inertia in atomic units:
                           1         2         3
     Eigenvalues --     2.18424   4.15294   6.33719
           X            0.00000   0.00000   1.00000
           Y            1.00000   0.00000   0.00000
           Z            0.00000   1.00000   0.00000
 This molecule is an asymmetric top.
 Rotational symmetry number  2.
 Rotational temperatures (Kelvin)     39.65389    20.85602    13.66755
 Rotational constants (GHZ):         826.25405   434.56950   284.78593
 Zero-point vibrational energy      56329.0 (Joules/Mol)
                                   13.46294 (Kcal/Mol)
 Vibrational temperatures:   2359.06  5516.16  5674.40
          (Kelvin)

 Zero-point correction=                           0.021455 (Hartree/Particle)
 Thermal correction to Energy=                    0.024290
 Thermal correction to Enthalpy=                  0.025234
 Thermal correction to Gibbs Free Energy=         0.003822
 Sum of electronic and zero-point Energies=            -76.403674
 Sum of electronic and thermal Energies=               -76.400838
 Sum of electronic and thermal Enthalpies=             -76.399894
 Sum of electronic and thermal Free Energies=          -76.421306

                     E (Thermal)             CV                S
                      KCal/Mol        Cal/Mol-Kelvin    Cal/Mol-Kelvin
 Total                   15.242              6.007             45.066
 Electronic               0.000              0.000              0.000
 Translational            0.889              2.981             34.608
 Rotational               0.889              2.981             10.451
 Vibrational             13.465              0.046              0.006

 Optimization completed.
    -- Stationary point found.
 Normal termination of Gaussian 09 at Thu Aug 20 12:38:00 2020.
