 Gaussian 09, Revision D.01,
 Gaussian 09:  ES64L-G09RevD.01 24-Apr-2013

 -------------------------------------
 #p B2PLYPD3/Def2QZVP opt freq=NoRaman
 -------------------------------------

 ----------
 butane_opt
 ----------
 Symbolic Z-matrix:
 Charge =  0 Multiplicity = 1

 SCF Done:  E(RB2PLYPD3) =  -158.133000599     A.U. after   10 cycles
 E2(B2PLYPD3) =    -0.2457718620D+00 E(B2PLYPD3) =    -0.15837877246104D+03
 SCF Done:  E(RB2PLYPD3) =  -158.133901086     A.U. after    8 cycles
 E2(B2PLYPD3) =    -0.2455080478D+00 E(B2PLYPD3) =    -0.15837940913370D+03
 SCF Done:  E(RB2PLYPD3) =  -158.133943978     A.U. after    6 cycles
 E2(B2PLYPD3) =    -0.2455075302D+00 E(B2PLYPD3) =    -0.15837945150840D+03
 Optimization completed.
    -- Stationary point found.
 Normal termination of Gaussian 09 at Thu Aug 20 20:23:24 2020.

 ----------------------------------------------------------------------
 #P Geom=AllCheck Guess=TCheck SCRF=Check GenChk RB2PLYPD3(FC)/def2QZVP
  Freq
 ----------------------------------------------------------------------

 Structure from the checkpoint file:  "butane_opt.chk"
 ----------
 butane_opt
 ----------
 Charge =  0 Multiplicity = 1

                         Standard orientation:
 ---------------------------------------------------------------------
 Center     Atomic      Atomic             Coordinates (Angstroms)
 Number     Number       Type             X           Y           Z
 ---------------------------------------------------------------------
      1          6           0        1.948575    0.119964    0.000105
      2          6           0        0.562434   -0.514660   -0.000117
      3          1           0        2.733832   -0.633651   -0.000162
      4          1           0        2.089904    0.747158    0.879518
      5          1           0        2.089908    0.747778   -0.878866
      6          6           0       -0.562435    0.514659   -0.000117
      7          1           0        0.455404   -1.161222    0.873130
      8          1           0        0.455582   -1.161004   -0.873546
      9          6           0       -1.948575   -0.119964    0.000105
     10          1           0       -0.455581    1.161004   -0.873546
     11          1           0       -0.455404    1.161222    0.873129
     12          1           0       -2.089909   -0.747779   -0.878866
     13          1           0       -2.733832    0.633651   -0.000163
     14          1           0       -2.089905   -0.747157    0.879518
 ---------------------------------------------------------------------

 SCF Done:  E(RB2PLYPD3) =  -158.133943978     A.U. after    1 cycles
 E2(B2PLYPD3) =    -0.2455075240D+00 E(B2PLYPD3) =    -0.15837945150226D+03
 E2(B2PLYPD3) =    -0.2455075240D+00 E(B2PLYPD3) =    -0.15837945150225D+03

 The electronic state is 1-A.
 Alpha  occ. eigenvalues --  -10.60198 -10.60158 -10.59532 -10.59532  -0.91035
 Alpha  occ. eigenvalues --   -0.83155  -0.72722  -0.66535  -0.54150  -0.49364
 Alpha  occ. eigenvalues --   -0.48561  -0.47764  -0.43048  -0.41177  -0.39105
 Alpha  occ. eigenvalues --   -0.38162  -0.37922
 Alpha virt. eigenvalues --    0.05950   0.06930   0.08277   0.08826   0.10904
 Alpha virt. eigenvalues --    0.12204   0.13026   0.14219   0.14568   0.15331
 Alpha virt. eigenvalues --    0.15799   0.16478   0.19779   0.20495   0.22042

 Mulliken charges:
               1
     1  C   -0.138101
     2  C   -0.048001
     3  H    0.043306
     4  H    0.041301
     5  H    0.041305
     6  C   -0.048001
     7  H    0.030097
     8  H    0.030094
     9  C   -0.138101
    10  H    0.030094
    11  H    0.030097
    12  H    0.041305
    13  H    0.043305
    14  H    0.041300
 Sum of Mulliken charges =   0.00000

 Dipole moment (field-independent basis, Debye):
    X=              0.0000    Y=              0.0000    Z=              0.0000  Tot=              0.0000
 Quadrupole moment (field-independent basis, Debye-Ang):
   XX=            -29.5727   YY=            -28.8206   ZZ=            -28.0783
   XY=             -0.3658   XZ=              0.0000   YZ=              0.0000

  Exact polarizability:  60.279   0.566  49.735   0.000   0.000  47.090
 Approx polarizability:  55.769   0.204  56.155   0.000   0.000  55.598

                      1                      2                      3
                      A                      A                      A
 Frequencies --    120.0034               227.3477               260.7543
 Red. masses --      1.8997                 1.0659                 2.2478
 Frc consts  --      0.0161                 0.0325                 0.0900
 IR Inten    --      0.0149                 0.0004                 0.0143

                      4                      5                      6
                      A                      A                      A
 Frequencies --    262.7348               428.6957               739.4550
 Red. masses --      1.1210                 2.7220                 1.0707
 Frc consts  --      0.0456                 0.2947                 0.3449
 IR Inten    --      0.0000                 0.0000                 2.9751

                      7                      8                      9
                      A                      A                      A
 Frequencies --    816.6542               850.9505               967.9825
 Red. masses --      1.1248                 1.9600                 1.1193
 Frc consts  --      0.4420                 0.8362                 0.6179
 IR Inten    --      0.0000                 0.0000                 0.7187

                     10                     11                     12
                      A                      A                      A
 Frequencies --    986.6280              1028.9626              1078.1267
 Red. masses --      1.3032                 2.9054                 2.3696
 Frc consts  --      0.7474                 1.8124                 1.6228
 IR Inten    --      4.9604                 0.0078                 0.0000

                     13                     14                     15
                      A                      A                      A
 Frequencies --   1181.2499              1220.3106              1300.6808
 Red. masses --      2.0629                 1.7518                 1.2477
 Frc consts  --      1.6959                 1.5370                 1.2437
 IR Inten    --      0.0000                 0.0000                 0.2198

                     16                     17                     18
                      A                      A                      A
 Frequencies --   1332.7758              1342.7011              1402.4181
 Red. masses --      1.3514                 1.0698                 1.5842
 Frc consts  --      1.4143                 1.1364                 1.8357
 IR Inten    --      2.5837                 0.0000                 0.0000

                     19                     20                     21
                      A                      A                      A
 Frequencies --   1421.3021              1423.5222              1497.8102
 Red. masses --      1.2285                 1.2455                 1.0650
 Frc consts  --      1.4622                 1.4871                 1.4078
 IR Inten    --      0.0000                 4.8968                 0.0000

                     22                     23                     24
                      A                      A                      A
 Frequencies --   1503.6729              1512.9069              1514.6416
 Red. masses --      1.0518                 1.0436                 1.0359
 Frc consts  --      1.4012                 1.4074                 1.4002
 IR Inten    --      1.4826                 0.0000                13.8693

                     25                     26                     27
                      A                      A                      A
 Frequencies --   1518.0454              1523.9112              3029.3886
 Red. masses --      1.0617                 1.0853                 1.0582
 Frc consts  --      1.4416                 1.4850                 5.7219
 IR Inten    --      0.0000                 8.5847                 0.0000

                     28                     29                     30
                      A                      A                      A
 Frequencies --   3037.6591              3046.0268              3046.5512
 Red. masses --      1.0587                 1.0362                 1.0355
 Frc consts  --      5.7557                 5.6643                 5.6626
 IR Inten    --     42.9436                80.3565                 0.0000

                     31                     32                     33
                      A                      A                      A
 Frequencies --   3053.5644              3076.3629              3112.1687
 Red. masses --      1.1006                 1.1045                 1.1026
 Frc consts  --      6.0466                 6.1586                 6.2922
 IR Inten    --      0.0000                20.0322                 0.0001

                     34                     35                     36
                      A                      A                      A
 Frequencies --   3115.7058              3117.9790              3118.7348
 Red. masses --      1.1024                 1.1015                 1.1011
 Frc consts  --      6.3053                 6.3092                 6.3100
 IR Inten    --    103.6817                 0.0009                73.2522

 - Thermochemistry -
 -------------------
 Temperature   298.150 Kelvin.  Pressure   1.00000 Atm.
 Atom     1 has atomic number  6 and mass  12.00000

 Molecular mass:    58.07825 amu.
 Principal axes and moments of inertia in atomic units:
                           1         2         3
     Eigenvalues --    76.37095 494.31350 526.46855
           X            0.99998   0.00567   0.00000
           Y           -0.00567   0.99998   0.00000
           Z            0.00000   0.00000   1.00000
 This molecule is an asymmetric top.
 Rotational symmetry number  1.
 Rotational temperatures (Kelvin)      1.13412     0.17522     0.16452
 Rotational constants (GHZ):          23.63125     3.65101     3.42801
 Zero-point vibrational energy     348223.3 (Joules/Mol)
                                   83.22736 (Kcal/Mol)
 Warning -- explicit consideration of   5 degrees of freedom as
           vibrations may cause significant error
 Vibrational temperatures:    172.66   327.10   375.17   378.02   616.80
          (Kelvin)           1063.91  1174.98  1224.33  1392.71  1419.54
                             1480.45  1551.18  1699.55  1755.75  1871.39
                             1917.56  1931.85  2017.76  2044.93  2048.13
                             2155.01  2163.45  2176.73  2179.23  2184.13
                             2192.57  4358.61  4370.51  4382.55  4383.30
                             4393.39  4426.19  4477.71  4482.80  4486.07
                             4487.16

 Zero-point correction=                           0.132631 (Hartree/Particle)
 Thermal correction to Energy=                    0.138393
 Thermal correction to Enthalpy=                  0.139337
 Thermal correction to Gibbs Free Energy=         0.104643
 Sum of electronic and zero-point Energies=           -158.246820
 Sum of electronic and thermal Energies=              -158.241059
 Sum of electronic and thermal Enthalpies=            -158.240115
 Sum of electronic and thermal Free Energies=         -158.274808

                     E (Thermal)             CV                S
                      KCal/Mol        Cal/Mol-Kelvin    Cal/Mol-Kelvin
 Total                   86.843             19.540             73.019
 Electronic               0.000              0.000              0.000
 Translational            0.889              2.981             38.098
 Rotational               0.889              2.981             24.500
 Vibrational             85.065             13.579             10.421
 Vibration     1          0.609              1.933              3.100
 Vibration     2          0.651              1.799              1.900
 Vibration     3          0.669              1.745              1.657
 Vibration     4          0.670              1.741              1.644
 Vibration     5          0.790              1.408              0.863

 Optimization completed.
    -- Stationary point found.
 Normal termination of Gaussian 09 at Fri Aug 21 16:35:52 2020.
